     0.200      0.24919      0.03500      0.10000   0.000 
     0.400      0.25239      0.03500      0.10000   0.000 
     0.600      0.24789      0.03500      0.10000   0.000 
     0.800      0.24607      0.03500      0.10000   0.000 
     1.000      0.24430      0.03500      0.10000   0.000 
     1.200      0.25295      0.03500      0.10000   0.000 
     1.400      0.24082      0.03500      0.10000   0.000 
     1.600      0.24797      0.03500      0.10000   0.000 
     1.800      0.24192      0.03500      0.10000   0.000 
     2.000      0.24213      0.03500      0.10000   0.000 
